# vtk DataFile Version 2.0
result
ASCII
DATASET UNSTRUCTURED_GRID
POINTS 1364 double
0.010000 0.000000 0.100000
0.020000 0.000000 0.100000
0.030000 0.000000 0.100000
0.040000 0.000000 0.100000
0.050000 0.000000 0.100000
0.060000 0.000000 0.100000
0.070000 0.000000 0.100000
0.080000 0.000000 0.100000
0.090000 0.000000 0.100000
0.100000 0.000000 0.100000
0.110000 0.000000 0.100000
0.120000 0.000000 0.100000
0.130000 0.000000 0.100000
0.140000 0.000000 0.100000
0.150000 0.000000 0.100000
0.160000 0.000000 0.100000
0.170000 0.000000 0.100000
0.180000 0.000000 0.100000
0.190000 0.000000 0.100000
0.200000 0.000000 0.100000
0.210000 0.000000 0.100000
0.220000 0.000000 0.100000
0.230000 0.000000 0.100000
0.240000 0.000000 0.100000
0.250000 0.000000 0.100000
0.260000 0.000000 0.100000
0.270000 0.000000 0.100000
0.280000 0.000000 0.100000
0.290000 0.000000 0.100000
0.300000 0.000000 0.100000
0.300000 0.010000 0.100000
0.300000 0.020000 0.100000
0.300000 0.030000 0.100000
0.290000 0.030000 0.100000
0.280000 0.030000 0.100000
0.270000 0.030000 0.100000
0.260000 0.030000 0.100000
0.250000 0.030000 0.100000
0.240000 0.030000 0.100000
0.230000 0.030000 0.100000
0.220000 0.030000 0.100000
0.210000 0.030000 0.100000
0.200000 0.030000 0.100000
0.190000 0.030000 0.100000
0.180000 0.030000 0.100000
0.170000 0.030000 0.100000
0.160000 0.030000 0.100000
0.150000 0.030000 0.100000
0.140000 0.030000 0.100000
0.130000 0.030000 0.100000
0.120000 0.030000 0.100000
0.110000 0.030000 0.100000
0.100000 0.030000 0.100000
0.090000 0.030000 0.100000
0.080000 0.030000 0.100000
0.070000 0.030000 0.100000
0.060000 0.030000 0.100000
0.050000 0.030000 0.100000
0.040000 0.030000 0.100000
0.030000 0.030000 0.100000
0.020000 0.030000 0.100000
0.010000 0.030000 0.100000
0.000000 0.030000 0.100000
0.000000 0.020000 0.100000
0.000000 0.010000 0.100000
0.010000 0.010000 0.100000
0.020000 0.010000 0.100000
0.030000 0.010000 0.100000
0.040000 0.010000 0.100000
0.050000 0.010000 0.100000
0.060000 0.010000 0.100000
0.070000 0.010000 0.100000
0.080000 0.010000 0.100000
0.090000 0.010000 0.100000
0.100000 0.010000 0.100000
0.110000 0.010000 0.100000
0.120000 0.010000 0.100000
0.130000 0.010000 0.100000
0.140000 0.010000 0.100000
0.150000 0.010000 0.100000
0.160000 0.010000 0.100000
0.170000 0.010000 0.100000
0.180000 0.010000 0.100000
0.190000 0.010000 0.100000
0.200000 0.010000 0.100000
0.210000 0.010000 0.100000
0.220000 0.010000 0.100000
0.230000 0.010000 0.100000
0.240000 0.010000 0.100000
0.250000 0.010000 0.100000
0.260000 0.010000 0.100000
0.270000 0.010000 0.100000
0.280000 0.010000 0.100000
0.290000 0.010000 0.100000
0.010000 0.020000 0.100000
0.020000 0.020000 0.100000
0.030000 0.020000 0.100000
0.040000 0.020000 0.100000
0.050000 0.020000 0.100000
0.060000 0.020000 0.100000
0.070000 0.020000 0.100000
0.080000 0.020000 0.100000
0.090000 0.020000 0.100000
0.100000 0.020000 0.100000
0.110000 0.020000 0.100000
0.120000 0.020000 0.100000
0.130000 0.020000 0.100000
0.140000 0.020000 0.100000
0.150000 0.020000 0.100000
0.160000 0.020000 0.100000
0.170000 0.020000 0.100000
0.180000 0.020000 0.100000
0.190000 0.020000 0.100000
0.200000 0.020000 0.100000
0.210000 0.020000 0.100000
0.220000 0.020000 0.100000
0.230000 0.020000 0.100000
0.240000 0.020000 0.100000
0.250000 0.020000 0.100000
0.260000 0.020000 0.100000
0.270000 0.020000 0.100000
0.280000 0.020000 0.100000
0.290000 0.020000 0.100000
0.300000 0.000000 0.000000
0.300000 0.000000 0.010000
0.300000 0.000000 0.020000
0.300000 0.000000 0.030000
0.300000 0.000000 0.040000
0.300000 0.000000 0.050000
0.300000 0.000000 0.060000
0.300000 0.000000 0.070000
0.300000 0.000000 0.080000
0.300000 0.000000 0.090000
0.000000 0.000000 0.090000
0.000000 0.000000 0.080000
0.000000 0.000000 0.050000
0.000000 0.000000 0.040000
0.000000 0.000000 0.030000
0.000000 0.000000 0.000000
0.010000 0.000000 0.000000
0.020000 0.000000 0.000000
0.030000 0.000000 0.000000
0.040000 0.000000 0.000000
0.050000 0.000000 0.000000
0.060000 0.000000 0.000000
0.070000 0.000000 0.000000
0.080000 0.000000 0.000000
0.090000 0.000000 0.000000
0.100000 0.000000 0.000000
0.110000 0.000000 0.000000
0.120000 0.000000 0.000000
0.130000 0.000000 0.000000
0.140000 0.000000 0.000000
0.150000 0.000000 0.000000
0.160000 0.000000 0.000000
0.170000 0.000000 0.000000
0.180000 0.000000 0.000000
0.190000 0.000000 0.000000
0.200000 0.000000 0.000000
0.210000 0.000000 0.000000
0.220000 0.000000 0.000000
0.230000 0.000000 0.000000
0.240000 0.000000 0.000000
0.250000 0.000000 0.000000
0.260000 0.000000 0.000000
0.270000 0.000000 0.000000
0.280000 0.000000 0.000000
0.290000 0.000000 0.000000
0.290000 0.000000 0.010000
0.290000 0.000000 0.020000
0.290000 0.000000 0.030000
0.290000 0.000000 0.040000
0.290000 0.000000 0.050000
0.290000 0.000000 0.060000
0.290000 0.000000 0.070000
0.290000 0.000000 0.080000
0.290000 0.000000 0.090000
0.280000 0.000000 0.010000
0.280000 0.000000 0.020000
0.280000 0.000000 0.030000
0.280000 0.000000 0.040000
0.280000 0.000000 0.050000
0.280000 0.000000 0.060000
0.280000 0.000000 0.070000
0.280000 0.000000 0.080000
0.280000 0.000000 0.090000
0.270000 0.000000 0.010000
0.270000 0.000000 0.020000
0.270000 0.000000 0.030000
0.270000 0.000000 0.040000
0.270000 0.000000 0.050000
0.270000 0.000000 0.060000
0.270000 0.000000 0.070000
0.270000 0.000000 0.080000
0.270000 0.000000 0.090000
0.260000 0.000000 0.010000
0.260000 0.000000 0.020000
0.260000 0.000000 0.030000
0.260000 0.000000 0.040000
0.260000 0.000000 0.050000
0.260000 0.000000 0.060000
0.260000 0.000000 0.070000
0.260000 0.000000 0.080000
0.260000 0.000000 0.090000
0.250000 0.000000 0.010000
0.250000 0.000000 0.020000
0.250000 0.000000 0.030000
0.250000 0.000000 0.040000
0.250000 0.000000 0.050000
0.250000 0.000000 0.060000
0.250000 0.000000 0.070000
0.250000 0.000000 0.080000
0.250000 0.000000 0.090000
0.240000 0.000000 0.010000
0.240000 0.000000 0.020000
0.240000 0.000000 0.030000
0.240000 0.000000 0.040000
0.240000 0.000000 0.050000
0.240000 0.000000 0.060000
0.240000 0.000000 0.070000
0.240000 0.000000 0.080000
0.240000 0.000000 0.090000
0.230000 0.000000 0.010000
0.230000 0.000000 0.020000
0.230000 0.000000 0.030000
0.230000 0.000000 0.040000
0.230000 0.000000 0.050000
0.230000 0.000000 0.060000
0.230000 0.000000 0.070000
0.230000 0.000000 0.080000
0.230000 0.000000 0.090000
0.220000 0.000000 0.010000
0.220000 0.000000 0.020000
0.220000 0.000000 0.030000
0.220000 0.000000 0.040000
0.220000 0.000000 0.050000
0.220000 0.000000 0.060000
0.220000 0.000000 0.070000
0.220000 0.000000 0.080000
0.220000 0.000000 0.090000
0.210000 0.000000 0.010000
0.210000 0.000000 0.020000
0.210000 0.000000 0.030000
0.210000 0.000000 0.040000
0.210000 0.000000 0.050000
0.210000 0.000000 0.060000
0.210000 0.000000 0.070000
0.210000 0.000000 0.080000
0.210000 0.000000 0.090000
0.200000 0.000000 0.010000
0.200000 0.000000 0.020000
0.200000 0.000000 0.030000
0.200000 0.000000 0.040000
0.200000 0.000000 0.050000
0.200000 0.000000 0.060000
0.200000 0.000000 0.070000
0.200000 0.000000 0.080000
0.200000 0.000000 0.090000
0.190000 0.000000 0.010000
0.190000 0.000000 0.020000
0.190000 0.000000 0.030000
0.190000 0.000000 0.040000
0.190000 0.000000 0.050000
0.190000 0.000000 0.060000
0.190000 0.000000 0.070000
0.190000 0.000000 0.080000
0.190000 0.000000 0.090000
0.180000 0.000000 0.010000
0.180000 0.000000 0.020000
0.180000 0.000000 0.030000
0.180000 0.000000 0.040000
0.180000 0.000000 0.050000
0.180000 0.000000 0.060000
0.180000 0.000000 0.070000
0.180000 0.000000 0.080000
0.180000 0.000000 0.090000
0.170000 0.000000 0.010000
0.170000 0.000000 0.020000
0.170000 0.000000 0.030000
0.170000 0.000000 0.040000
0.170000 0.000000 0.050000
0.170000 0.000000 0.060000
0.170000 0.000000 0.070000
0.170000 0.000000 0.080000
0.170000 0.000000 0.090000
0.160000 0.000000 0.010000
0.160000 0.000000 0.020000
0.160000 0.000000 0.030000
0.160000 0.000000 0.040000
0.160000 0.000000 0.050000
0.160000 0.000000 0.060000
0.160000 0.000000 0.070000
0.160000 0.000000 0.080000
0.160000 0.000000 0.090000
0.150000 0.000000 0.010000
0.150000 0.000000 0.020000
0.150000 0.000000 0.030000
0.150000 0.000000 0.040000
0.150000 0.000000 0.050000
0.150000 0.000000 0.060000
0.150000 0.000000 0.070000
0.150000 0.000000 0.080000
0.150000 0.000000 0.090000
0.140000 0.000000 0.010000
0.140000 0.000000 0.020000
0.140000 0.000000 0.030000
0.140000 0.000000 0.040000
0.140000 0.000000 0.050000
0.140000 0.000000 0.060000
0.140000 0.000000 0.070000
0.140000 0.000000 0.080000
0.140000 0.000000 0.090000
0.130000 0.000000 0.010000
0.130000 0.000000 0.020000
0.130000 0.000000 0.030000
0.130000 0.000000 0.040000
0.130000 0.000000 0.050000
0.130000 0.000000 0.060000
0.130000 0.000000 0.070000
0.130000 0.000000 0.080000
0.130000 0.000000 0.090000
0.120000 0.000000 0.010000
0.120000 0.000000 0.020000
0.120000 0.000000 0.030000
0.120000 0.000000 0.040000
0.120000 0.000000 0.050000
0.120000 0.000000 0.060000
0.120000 0.000000 0.070000
0.120000 0.000000 0.080000
0.120000 0.000000 0.090000
0.110000 0.000000 0.010000
0.110000 0.000000 0.020000
0.110000 0.000000 0.030000
0.110000 0.000000 0.040000
0.110000 0.000000 0.050000
0.110000 0.000000 0.060000
0.110000 0.000000 0.070000
0.110000 0.000000 0.080000
0.110000 0.000000 0.090000
0.100000 0.000000 0.010000
0.100000 0.000000 0.020000
0.100000 0.000000 0.030000
0.100000 0.000000 0.040000
0.100000 0.000000 0.050000
0.100000 0.000000 0.060000
0.100000 0.000000 0.070000
0.100000 0.000000 0.080000
0.100000 0.000000 0.090000
0.090000 0.000000 0.010000
0.090000 0.000000 0.020000
0.090000 0.000000 0.030000
0.090000 0.000000 0.040000
0.090000 0.000000 0.050000
0.090000 0.000000 0.060000
0.090000 0.000000 0.070000
0.090000 0.000000 0.080000
0.090000 0.000000 0.090000
0.080000 0.000000 0.010000
0.080000 0.000000 0.020000
0.080000 0.000000 0.030000
0.080000 0.000000 0.040000
0.080000 0.000000 0.050000
0.080000 0.000000 0.060000
0.080000 0.000000 0.070000
0.080000 0.000000 0.080000
0.080000 0.000000 0.090000
0.070000 0.000000 0.010000
[...]
POINT_DATA 1364
VECTORS displacement double
  -0.0000000762   -0.0000000107    0.0000000526
  -0.0000001542   -0.0000000657    0.0000000726
  -0.0000002328   -0.0000001847    0.0000000842
  -0.0000003109   -0.0000003614    0.0000000904
  -0.0000003869   -0.0000005931    0.0000000936
  -0.0000004603   -0.0000008771    0.0000000948
  -0.0000005309   -0.0000012107    0.0000000944
  -0.0000005984   -0.0000015915    0.0000000929
  -0.0000006630   -0.0000020173    0.0000000906
  -0.0000007245   -0.0000024856    0.0000000877
  -0.0000007830   -0.0000029945    0.0000000843
  -0.0000008385   -0.0000035416    0.0000000807
  -0.0000008910   -0.0000041249    0.0000000768
  -0.0000009404   -0.0000047424    0.0000000727
  -0.0000009869   -0.0000053919    0.0000000686
  -0.0000010303   -0.0000060715    0.0000000643
  -0.0000010708   -0.0000067791    0.0000000600
  -0.0000011082   -0.0000075127    0.0000000557
  -0.0000011427   -0.0000082703    0.0000000513
  -0.0000011741   -0.0000090498    0.0000000470
  -0.0000012026   -0.0000098492    0.0000000427
  -0.0000012281   -0.0000106666    0.0000000384
  -0.0000012506   -0.0000114999    0.0000000342
  -0.0000012701   -0.0000123471    0.0000000301
  -0.0000012867   -0.0000132061    0.0000000261
  -0.0000013003   -0.0000140749    0.0000000224
  -0.0000013110   -0.0000149515    0.0000000190
  -0.0000013184   -0.0000158337    0.0000000161
  -0.0000013222   -0.0000167183    0.0000000144
  -0.0000013232   -0.0000176012    0.0000000140
  -0.0000004425   -0.0000176020    0.0000000083
   0.0000004369   -0.0000176061    0.0000000035
   0.0000013252   -0.0000176160   -0.0000000029
   0.0000013213   -0.0000167180   -0.0000000086
   0.0000013162   -0.0000158326   -0.0000000121
   0.0000013087   -0.0000149508   -0.0000000156
   0.0000012985   -0.0000140746   -0.0000000193
   0.0000012853   -0.0000132059   -0.0000000233
   0.0000012689   -0.0000123470   -0.0000000275
   0.0000012496   -0.0000114999   -0.0000000317
   0.0000012272   -0.0000106666   -0.0000000361
   0.0000012018   -0.0000098492   -0.0000000405
   0.0000011733   -0.0000090498   -0.0000000450
   0.0000011419   -0.0000082702   -0.0000000495
   0.0000011075   -0.0000075127   -0.0000000539
   0.0000010700   -0.0000067791   -0.0000000584
   0.0000010296   -0.0000060715   -0.0000000629
   0.0000009862   -0.0000053919   -0.0000000673
   0.0000009398   -0.0000047424   -0.0000000716
   0.0000008903   -0.0000041249   -0.0000000758
   0.0000008379   -0.0000035416   -0.0000000798
   0.0000007825   -0.0000029944   -0.0000000836
   0.0000007240   -0.0000024856   -0.0000000870
   0.0000006625   -0.0000020172   -0.0000000900
   0.0000005980   -0.0000015915   -0.0000000925
   0.0000005305   -0.0000012107   -0.0000000940
   0.0000004600   -0.0000008770   -0.0000000945
   0.0000003866   -0.0000005931   -0.0000000934
   0.0000003106   -0.0000003614   -0.0000000902
   0.0000002327   -0.0000001847   -0.0000000841
   0.0000001541   -0.0000000657   -0.0000000726
   0.0000000761   -0.0000000107   -0.0000000526
   0.0000000000    0.0000000000    0.0000000000
   0.0000000000    0.0000000000    0.0000000000
   0.0000000000    0.0000000000    0.0000000000
  -0.0000000279    0.0000000092    0.0000000179
  -0.0000000541   -0.0000000502    0.0000000245
  -0.0000000789   -0.0000001690    0.0000000281
  -0.0000001041   -0.0000003461    0.0000000301
  -0.0000001289   -0.0000005783    0.0000000312
  -0.0000001530   -0.0000008628    0.0000000316
  -0.0000001763   -0.0000011970    0.0000000314
  -0.0000001986   -0.0000015784    0.0000000310
  -0.0000002200   -0.0000020048    0.0000000302
  -0.0000002405   -0.0000024738    0.0000000293
  -0.0000002599   -0.0000029832    0.0000000282
  -0.0000002784   -0.0000035309    0.0000000270
  -0.0000002958   -0.0000041148    0.0000000258
  -0.0000003123   -0.0000047329    0.0000000245
  -0.0000003278   -0.0000053830    0.0000000232
  -0.0000003423   -0.0000060632    0.0000000218
  -0.0000003557   -0.0000067714    0.0000000204
  -0.0000003682   -0.0000075056    0.0000000190
  -0.0000003797   -0.0000082637    0.0000000176
  -0.0000003902   -0.0000090438    0.0000000163
  -0.0000003997   -0.0000098439    0.0000000149
  -0.0000004083   -0.0000106619    0.0000000135
  -0.0000004158   -0.0000114958    0.0000000122
  -0.0000004224   -0.0000123435    0.0000000109
  -0.0000004280   -0.0000132031    0.0000000096
  -0.0000004327   -0.0000140724    0.0000000085
  -0.0000004365   -0.0000149495    0.0000000076
  -0.0000004397   -0.0000158323    0.0000000071
  -0.0000004419   -0.0000167182    0.0000000073
   0.0000000279    0.0000000092   -0.0000000179
   0.0000000540   -0.0000000502   -0.0000000244
   0.0000000787   -0.0000001690   -0.0000000280
   0.0000001039   -0.0000003461   -0.0000000300
   0.0000001286   -0.0000005782   -0.0000000310
   0.0000001527   -0.0000008628   -0.0000000313
   0.0000001759   -0.0000011970   -0.0000000311
   0.0000001982   -0.0000015784   -0.0000000305
   0.0000002196   -0.0000020048   -0.0000000297
   0.0000002400   -0.0000024738   -0.0000000286
   0.0000002594   -0.0000029832   -0.0000000274
   0.0000002778   -0.0000035309   -0.0000000262
   0.0000002952   -0.0000041148   -0.0000000248
   0.0000003116   -0.0000047329   -0.0000000233
   0.0000003271   -0.0000053830   -0.0000000219
   0.0000003415   -0.0000060632   -0.0000000204
   0.0000003550   -0.0000067714   -0.0000000188
   0.0000003675   -0.0000075056   -0.0000000173
   0.0000003789   -0.0000082637   -0.0000000158
   0.0000003894   -0.0000090438   -0.0000000142
   0.0000003989   -0.0000098439   -0.0000000127
   0.0000004073   -0.0000106619   -0.0000000112
   0.0000004148   -0.0000114957   -0.0000000097
   0.0000004212   -0.0000123435   -0.0000000082
   0.0000004266   -0.0000132030   -0.0000000068
   0.0000004310   -0.0000140723   -0.0000000053
   0.0000004342   -0.0000149492   -0.0000000039
   0.0000004361   -0.0000158316   -0.0000000022
   0.0000004363   -0.0000167184   -0.0000000001
  -0.0000013223   -0.0000176009   -0.0000000102
  -0.0000013222   -0.0000176075   -0.0000000095
  -0.0000013217   -0.0000176141   -0.0000000078
  -0.0000013213   -0.0000176193   -0.0000000051
  -0.0000013211   -0.0000176226   -0.0000000017
  -0.0000013211   -0.0000176237    0.0000000019
  -0.0000013213   -0.0000176226    0.0000000055
  -0.0000013217   -0.0000176194    0.0000000089
  -0.0000013223   -0.0000176143    0.0000000116
  -0.0000013229   -0.0000176077    0.0000000133
   0.0000000000    0.0000000000    0.0000000000
   0.0000000000    0.0000000000    0.0000000000
   0.0000000000    0.0000000000    0.0000000000
   0.0000000000    0.0000000000    0.0000000000
   0.0000000000    0.0000000000    0.0000000000
   0.0000000000    0.0000000000    0.0000000000
  -0.0000000761   -0.0000000107   -0.0000000526
  -0.0000001541   -0.0000000656   -0.0000000726
  -0.0000002327   -0.0000001846   -0.0000000841
  -0.0000003106   -0.0000003613   -0.0000000902
  -0.0000003866   -0.0000005930   -0.0000000934
  -0.0000004600   -0.0000008770   -0.0000000945
  -0.0000005305   -0.0000012106   -0.0000000940
  -0.0000005980   -0.0000015914   -0.0000000925
  -0.0000006625   -0.0000020172   -0.0000000901
  -0.0000007240   -0.0000024855   -0.0000000871
  -0.0000007824   -0.0000029944   -0.0000000836
  -0.0000008379   -0.0000035415   -0.0000000798
  -0.0000008903   -0.0000041248   -0.0000000758
  -0.0000009398   -0.0000047422   -0.0000000716
  -0.0000009862   -0.0000053918   -0.0000000673
  -0.0000010296   -0.0000060714   -0.0000000629
  -0.0000010700   -0.0000067789   -0.0000000584
  -0.0000011075   -0.0000075125   -0.0000000540
  -0.0000011419   -0.0000082701   -0.0000000495
  -0.0000011733   -0.0000090496   -0.0000000449
  -0.0000012018   -0.0000098491   -0.0000000405
  -0.0000012272   -0.0000106664   -0.0000000360
  -0.0000012497   -0.0000114997   -0.0000000316
  -0.0000012692   -0.0000123469   -0.0000000273
  -0.0000012858   -0.0000132058   -0.0000000232
  -0.0000012994   -0.0000140746   -0.0000000193
  -0.0000013101   -0.0000149512   -0.0000000157
  -0.0000013175   -0.0000158334   -0.0000000126
  -0.0000013213   -0.0000167180   -0.0000000107
  -0.0000013212   -0.0000167252   -0.0000000096
  -0.0000013204   -0.0000167319   -0.0000000078
  -0.0000013197   -0.0000167374   -0.0000000050
  -0.0000013193   -0.0000167408   -0.0000000017
  -0.0000013193   -0.0000167420    0.0000000018
  -0.0000013195   -0.0000167409    0.0000000054
  -0.0000013201   -0.0000167375    0.0000000087
  -0.0000013210   -0.0000167321    0.0000000114
  -0.0000013220   -0.0000167254    0.0000000133
  -0.0000013177   -0.0000158421   -0.0000000108
  -0.0000013166   -0.0000158496   -0.0000000085
  -0.0000013156   -0.0000158555   -0.0000000055
  -0.0000013151   -0.0000158592   -0.0000000020
  -0.0000013150   -0.0000158605    0.0000000017
  -0.0000013153   -0.0000158593    0.0000000055
  -0.0000013160   -0.0000158556    0.0000000090
  -0.0000013171   -0.0000158498    0.0000000119
  -0.0000013185   -0.0000158423    0.0000000143
  -0.0000013106   -0.0000149618   -0.0000000129
  -0.0000013093   -0.0000149706   -0.0000000098
  -0.0000013081   -0.0000149772   -0.0000000063
  -0.0000013074   -0.0000149813   -0.0000000024
  -0.0000013072   -0.0000149828    0.0000000016
  -0.0000013076   -0.0000149814    0.0000000057
  -0.0000013085   -0.0000149773    0.0000000096
  -0.0000013099   -0.0000149707    0.0000000131
  -0.0000013113   -0.0000149620    0.0000000162
  -0.0000013002   -0.0000140874   -0.0000000155
  -0.0000012988   -0.0000140976   -0.0000000116
  -0.0000012975   -0.0000141052   -0.0000000075
  -0.0000012966   -0.0000141099   -0.0000000030
  -0.0000012964   -0.0000141115    0.0000000016
  -0.0000012968   -0.0000141099    0.0000000061
  -0.0000012978   -0.0000141053    0.0000000106
  -0.0000012993   -0.0000140978    0.0000000147
  -0.0000013009   -0.0000140876    0.0000000186
  -0.0000012867   -0.0000132209   -0.0000000185
  -0.0000012853   -0.0000132328   -0.0000000138
  -0.0000012838   -0.0000132415   -0.0000000088
  -0.0000012829   -0.0000132468   -0.0000000037
  -0.0000012826   -0.0000132486    0.0000000015
  -0.0000012831   -0.0000132468    0.0000000067
  -0.0000012842   -0.0000132416    0.0000000118
  -0.0000012858   -0.0000132329    0.0000000167
  -0.0000012874   -0.0000132210    0.0000000215
  -0.0000012702   -0.0000123643   -0.0000000218
  -0.0000012687   -0.0000123780   -0.0000000162
  -0.0000012672   -0.0000123879   -0.0000000104
  -0.0000012663   -0.0000123939   -0.0000000045
  -0.0000012660   -0.0000123959    0.0000000014
  -0.0000012664   -0.0000123940    0.0000000073
  -0.0000012676   -0.0000123880    0.0000000131
  -0.0000012693   -0.0000123781    0.0000000189
  -0.0000012709   -0.0000123644    0.0000000245
  -0.0000012507   -0.0000115196   -0.0000000251
  -0.0000012492   -0.0000115352   -0.0000000187
  -0.0000012477   -0.0000115464   -0.0000000121
  -0.0000012467   -0.0000115532   -0.0000000054
  -0.0000012464   -0.0000115555    0.0000000013
  -0.0000012468   -0.0000115532    0.0000000080
  -0.0000012480   -0.0000115465    0.0000000146
  -0.0000012498   -0.0000115353    0.0000000212
  -0.0000012514   -0.0000115198    0.0000000277
  -0.0000012283   -0.0000106889   -0.0000000286
  -0.0000012268   -0.0000107064   -0.0000000212
  -0.0000012252   -0.0000107190   -0.0000000138
  -0.0000012241   -0.0000107265   -0.0000000063
  -0.0000012238   -0.0000107291    0.0000000012
  -0.0000012243   -0.0000107266    0.0000000087
  -0.0000012255   -0.0000107190    0.0000000162
  -0.0000012273   -0.0000107065    0.0000000236
  -0.0000012289   -0.0000106890    0.0000000310
  -0.0000012028   -0.0000098741   -0.0000000322
  -0.0000012013   -0.0000098936   -0.0000000239
  -0.0000011997   -0.0000099075   -0.0000000156
  -0.0000011986   -0.0000099160   -0.0000000073
  -0.0000011983   -0.0000099188    0.0000000011
  -0.0000011988   -0.0000099160    0.0000000095
  -0.0000012000   -0.0000099076    0.0000000178
  -0.0000012018   -0.0000098937    0.0000000261
  -0.0000012035   -0.0000098742    0.0000000344
  -0.0000011744   -0.0000090772   -0.0000000357
  -0.0000011728   -0.0000090987   -0.0000000266
  -0.0000011712   -0.0000091141   -0.0000000174
  -0.0000011702   -0.0000091234   -0.0000000082
  -0.0000011698   -0.0000091265    0.0000000010
  -0.0000011703   -0.0000091234    0.0000000102
  -0.0000011715   -0.0000091142    0.0000000194
  -0.0000011733   -0.0000090989    0.0000000286
  -0.0000011750   -0.0000090774    0.0000000378
  -0.0000011429   -0.0000083004   -0.0000000393
  -0.0000011414   -0.0000083239   -0.0000000293
  -0.0000011398   -0.0000083407   -0.0000000192
  -0.0000011387   -0.0000083508   -0.0000000091
  -0.0000011384   -0.0000083542    0.0000000009
  -0.0000011389   -0.0000083508    0.0000000110
  -0.0000011401   -0.0000083408    0.0000000211
  -0.0000011419   -0.0000083240    0.0000000311
  -0.0000011436   -0.0000083005    0.0000000412
  -0.0000011085   -0.0000075454   -0.0000000429
  -0.0000011070   -0.0000075710   -0.0000000320
  -0.0000011053   -0.0000075892   -0.0000000210
  -0.0000011043   -0.0000076002   -0.0000000101
  -0.0000011040   -0.0000076038    0.0000000009
  -0.0000011044   -0.0000076002    0.0000000118
  -0.0000011056   -0.0000075893    0.0000000227
  -0.0000011074   -0.0000075711    0.0000000337
  -0.0000011091   -0.0000075456    0.0000000446
  -0.0000010711   -0.0000068145   -0.0000000465
  -0.0000010695   -0.0000068420   -0.0000000346
  -0.0000010679   -0.0000068617   -0.0000000228
  -0.0000010669   -0.0000068735   -0.0000000110
  -0.0000010666   -0.0000068774    0.0000000008
  -0.0000010670   -0.0000068735    0.0000000126
  -0.0000010682   -0.0000068618    0.0000000244
  -0.0000010700   -0.0000068421    0.0000000362
  -0.0000010716   -0.0000068146    0.0000000481
  -0.0000010306   -0.0000061095   -0.0000000500
  -0.0000010291   -0.0000061391   -0.0000000373
  -0.0000010275   -0.0000061601   -0.0000000246
  -0.0000010265   -0.0000061728   -0.0000000119
  -0.0000010262   -0.0000061770    0.0000000007
  -0.0000010266   -0.0000061728    0.0000000133
  -0.0000010278   -0.0000061602    0.0000000260
  -0.0000010296   -0.0000061391    0.0000000387
  -0.0000010312   -0.0000061096    0.0000000514
  -0.0000009872   -0.0000054325   -0.0000000535
  -0.0000009857   -0.0000054640   -0.0000000399
  -0.0000009842   -0.0000054864   -0.0000000263
  -0.0000009832   -0.0000054999   -0.0000000128
  -0.0000009829   -0.0000055044    0.0000000006
  -0.0000009833   -0.0000054999    0.0000000141
  -0.0000009845   -0.0000054865    0.0000000276
  -0.0000009861   -0.0000054641    0.0000000411
  -0.0000009877   -0.0000054326    0.0000000548
  -0.0000009407   -0.0000047855   -0.0000000569
  -0.0000009393   -0.0000048189   -0.0000000424
  -0.0000009379   -0.0000048427   -0.0000000280
  -0.0000009369   -0.0000048569   -0.0000000137
  -0.0000009366   -0.0000048616    0.0000000006
  -0.0000009370   -0.0000048569    0.0000000148
  -0.0000009381   -0.0000048427    0.0000000291
  -0.0000009397   -0.0000048190    0.0000000435
  -0.0000009413   -0.0000047856    0.0000000580
  -0.0000008913   -0.0000041705   -0.0000000602
  -0.0000008900   -0.0000042057   -0.0000000448
  -0.0000008886   -0.0000042307   -0.0000000296
  -0.0000008877   -0.0000042457   -0.0000000145
  -0.0000008874   -0.0000042507    0.0000000005
  -0.0000008878   -0.0000042457    0.0000000155
  -0.0000008888   -0.0000042308    0.0000000305
  -0.0000008903   -0.0000042058    0.0000000458
  -0.0000008918   -0.0000041705    0.0000000612
  -0.0000008388   -0.0000035895   -0.0000000633
  -0.0000008376   -0.0000036264   -0.0000000470
  -0.0000008364   -0.0000036526   -0.0000000310
  -0.0000008355   -0.0000036682   -0.0000000153
  -0.0000008353   -0.0000036734    0.0000000004
  -0.0000008357   -0.0000036682    0.0000000161
  -0.0000008366   -0.0000036526    0.0000000319
  -0.0000008380   -0.0000036264    0.0000000479
  -0.0000008393   -0.0000035895    0.0000000642
  -0.0000007833   -0.0000030445   -0.0000000662
  -0.0000007823   -0.0000030830   -0.0000000491
  -0.0000007812   -0.0000031102   -0.0000000324
  -0.0000007805   -0.0000031264   -0.0000000159
  -0.0000007803   -0.0000031318    0.0000000004
  -0.0000007806   -0.0000031265    0.0000000166
  -0.0000007814   -0.0000031102    0.0000000331
  -0.0000007826   -0.0000030830    0.0000000498
  -0.0000007838   -0.0000030446    0.0000000669
  -0.0000007248   -0.0000025376   -0.0000000687
  -0.0000007240   -0.0000025774   -0.0000000509
  -0.0000007232   -0.0000026055   -0.0000000335
  -0.0000007227   -0.0000026222   -0.0000000165
  -0.0000007225   -0.0000026277    0.0000000003
  -0.0000007228   -0.0000026222    0.0000000171
  -0.0000007234   -0.0000026055    0.0000000341
  -0.0000007243   -0.0000025775    0.0000000515
  -0.0000007252   -0.0000025377    0.0000000694
  -0.0000006633   -0.0000020709   -0.0000000709
  -0.0000006627   -0.0000021117   -0.0000000522
  -0.0000006623   -0.0000021404   -0.0000000343
  -0.0000006620   -0.0000021574   -0.0000000168
  -0.0000006619   -0.0000021630    0.0000000002
  -0.0000006621   -0.0000021574    0.0000000173
  -0.0000006624   -0.0000021404    0.0000000348
  -0.0000006630   -0.0000021118    0.0000000527
  -0.0000006636   -0.0000020710    0.0000000714
  -0.0000005987   -0.0000016464   -0.0000000724
  -0.0000005986   -0.0000016878   -0.0000000531
  -0.0000005985   -0.0000017167   -0.0000000346
  -0.0000005986   -0.0000017337   -0.0000000170
  -0.0000005987   -0.0000017393    0.0000000002
  -0.0000005987   -0.0000017337    0.0000000174
  -0.0000005987   -0.0000017167    0.0000000351
  -0.0000005988   -0.0000016879    0.0000000535
  -0.0000005990   -0.0000016464    0.0000000728
  -0.0000005310   -0.0000012662   -0.0000000731
  -0.0000005314   -0.0000013076   -0.0000000532
  -0.0000005320   -0.0000013363   -0.0000000345
  -0.0000005326   -0.0000013530   -0.0000000169
  -0.0000005328   -0.0000013585    0.0000000002
  -0.0000005326   -0.0000013530    0.0000000172
  -0.0000005322   -0.0000013363    0.0000000348
  -0.0000005317   -0.0000013077    0.0000000535
  -0.0000005313   -0.0000012662    0.0000000734
  -0.0000004603   -0.0000009324   -0.0000000727
  -0.0000004615   -0.0000009731   -0.0000000523
  -0.0000004629   -0.0000010008   -0.0000000336
  -0.0000004640   -0.0000010168   -0.0000000163
  -0.0000004644   -0.0000010221    0.0000000001
  -0.0000004641   -0.0000010168    0.0000000166
  -0.0000004630   -0.0000010008    0.0000000338
  -0.0000004617   -0.0000009731    0.0000000526
  -0.0000004606   -0.0000009324    0.0000000730
  -0.0000003866   -0.0000006472   -0.0000000709
  -0.0000003887   -0.0000006861   -0.0000000502
  -0.0000003911   -0.0000007120   -0.0000000318
  -0.0000003930   -0.0000007267   -0.0000000153
  -0.0000003936   -0.0000007315    0.0000000001
  -0.0000003930   -0.0000007267    0.0000000155
  -0.0000003912   -0.0000007120    0.0000000320
  -0.0000003889   -0.0000006862    0.0000000504
  -0.0000003869   -0.0000006473    0.0000000711
  -0.0000003101   -0.0000004129   -0.0000000672
  -0.0000003133   -0.0000004485   -0.0000000464
  -0.0000003169   -0.0000004714   -0.0000000288
  -0.0000003195   -0.0000004841   -0.0000000137
  -0.0000003204   -0.0000004881    0.0000000001
  -0.0000003195   -0.0000004841    0.0000000138
  -0.0000003170   -0.0000004714    0.0000000289
  -0.0000003134   -0.0000004485    0.0000000465
  -0.0000003103   -0.0000004129    0.0000000673
  -0.0000002311   -0.0000002314   -0.0000000607
  -0.0000002354   -0.0000002618   -0.0000000405
  -0.0000002402   -0.0000002804   -0.0000000244
  -0.0000002435   -0.0000002902   -0.0000000114
  -0.0000002447   -0.0000002933    0.0000000000
  -0.0000002436   -0.0000002903    0.0000000115
  -0.0000002403   -0.0000002804    0.0000000245
  -0.0000002355   -0.0000002619    0.0000000406
  -0.0000002312   -0.0000002314    0.0000000608
  -0.0000001501   -0.0000001046   -0.0000000502
  -0.0000001555   -0.0000001273   -0.0000000315
  -0.0000001612   -0.0000001401   -0.0000000185
  -0.0000001648   -0.0000001465   -0.0000000085