# vtk DataFile Version 2.0
result
ASCII
DATASET UNSTRUCTURED_GRID
POINTS 1364 double
0.010000 0.000000 0.100000
0.020000 0.000000 0.100000
0.030000 0.000000 0.100000
0.040000 0.000000 0.100000
0.050000 0.000000 0.100000
0.060000 0.000000 0.100000
0.070000 0.000000 0.100000
0.080000 0.000000 0.100000
0.090000 0.000000 0.100000
0.100000 0.000000 0.100000
0.110000 0.000000 0.100000
0.120000 0.000000 0.100000
0.130000 0.000000 0.100000
0.140000 0.000000 0.100000
0.150000 0.000000 0.100000
0.160000 0.000000 0.100000
0.170000 0.000000 0.100000
0.180000 0.000000 0.100000
0.190000 0.000000 0.100000
0.200000 0.000000 0.100000
0.210000 0.000000 0.100000
0.220000 0.000000 0.100000
0.230000 0.000000 0.100000
0.240000 0.000000 0.100000
0.250000 0.000000 0.100000
0.260000 0.000000 0.100000
0.270000 0.000000 0.100000
0.280000 0.000000 0.100000
0.290000 0.000000 0.100000
0.300000 0.000000 0.100000
0.300000 0.010000 0.100000
0.300000 0.020000 0.100000
0.300000 0.030000 0.100000
0.290000 0.030000 0.100000
0.280000 0.030000 0.100000
0.270000 0.030000 0.100000
0.260000 0.030000 0.100000
0.250000 0.030000 0.100000
0.240000 0.030000 0.100000
0.230000 0.030000 0.100000
0.220000 0.030000 0.100000
0.210000 0.030000 0.100000
0.200000 0.030000 0.100000
0.190000 0.030000 0.100000
0.180000 0.030000 0.100000
0.170000 0.030000 0.100000
0.160000 0.030000 0.100000
0.150000 0.030000 0.100000
0.140000 0.030000 0.100000
0.130000 0.030000 0.100000
0.120000 0.030000 0.100000
0.110000 0.030000 0.100000
0.100000 0.030000 0.100000
0.090000 0.030000 0.100000
0.080000 0.030000 0.100000
0.070000 0.030000 0.100000
0.060000 0.030000 0.100000
0.050000 0.030000 0.100000
0.040000 0.030000 0.100000
0.030000 0.030000 0.100000
0.020000 0.030000 0.100000
0.010000 0.030000 0.100000
0.000000 0.030000 0.100000
0.000000 0.020000 0.100000
0.000000 0.010000 0.100000
0.010000 0.010000 0.100000
0.020000 0.010000 0.100000
0.030000 0.010000 0.100000
0.040000 0.010000 0.100000
0.050000 0.010000 0.100000
0.060000 0.010000 0.100000
0.070000 0.010000 0.100000
0.080000 0.010000 0.100000
0.090000 0.010000 0.100000
0.100000 0.010000 0.100000
0.110000 0.010000 0.100000
0.120000 0.010000 0.100000
0.130000 0.010000 0.100000
0.140000 0.010000 0.100000
0.150000 0.010000 0.100000
0.160000 0.010000 0.100000
0.170000 0.010000 0.100000
0.180000 0.010000 0.100000
0.190000 0.010000 0.100000
0.200000 0.010000 0.100000
0.210000 0.010000 0.100000
0.220000 0.010000 0.100000
0.230000 0.010000 0.100000
0.240000 0.010000 0.100000
0.250000 0.010000 0.100000
0.260000 0.010000 0.100000
0.270000 0.010000 0.100000
0.280000 0.010000 0.100000
0.290000 0.010000 0.100000
0.010000 0.020000 0.100000
0.020000 0.020000 0.100000
0.030000 0.020000 0.100000
0.040000 0.020000 0.100000
0.050000 0.020000 0.100000
0.060000 0.020000 0.100000
0.070000 0.020000 0.100000
0.080000 0.020000 0.100000
0.090000 0.020000 0.100000
0.100000 0.020000 0.100000
0.110000 0.020000 0.100000
0.120000 0.020000 0.100000
0.130000 0.020000 0.100000
0.140000 0.020000 0.100000
0.150000 0.020000 0.100000
0.160000 0.020000 0.100000
0.170000 0.020000 0.100000
0.180000 0.020000 0.100000
0.190000 0.020000 0.100000
0.200000 0.020000 0.100000
0.210000 0.020000 0.100000
0.220000 0.020000 0.100000
0.230000 0.020000 0.100000
0.240000 0.020000 0.100000
0.250000 0.020000 0.100000
0.260000 0.020000 0.100000
0.270000 0.020000 0.100000
0.280000 0.020000 0.100000
0.290000 0.020000 0.100000
0.300000 0.000000 0.000000
0.300000 0.000000 0.010000
0.300000 0.000000 0.020000
0.300000 0.000000 0.030000
0.300000 0.000000 0.040000
0.300000 0.000000 0.050000
0.300000 0.000000 0.060000
0.300000 0.000000 0.070000
0.300000 0.000000 0.080000
0.300000 0.000000 0.090000
0.000000 0.000000 0.090000
0.000000 0.000000 0.080000
0.000000 0.000000 0.050000
0.000000 0.000000 0.040000
0.000000 0.000000 0.030000
0.000000 0.000000 0.000000
0.010000 0.000000 0.000000
0.020000 0.000000 0.000000
0.030000 0.000000 0.000000
0.040000 0.000000 0.000000
0.050000 0.000000 0.000000
0.060000 0.000000 0.000000
0.070000 0.000000 0.000000
0.080000 0.000000 0.000000
0.090000 0.000000 0.000000
0.100000 0.000000 0.000000
0.110000 0.000000 0.000000
0.120000 0.000000 0.000000
0.130000 0.000000 0.000000
0.140000 0.000000 0.000000
0.150000 0.000000 0.000000
0.160000 0.000000 0.000000
0.170000 0.000000 0.000000
0.180000 0.000000 0.000000
0.190000 0.000000 0.000000
0.200000 0.000000 0.000000
0.210000 0.000000 0.000000
0.220000 0.000000 0.000000
0.230000 0.000000 0.000000
0.240000 0.000000 0.000000
0.250000 0.000000 0.000000
0.260000 0.000000 0.000000
0.270000 0.000000 0.000000
0.280000 0.000000 0.000000
0.290000 0.000000 0.000000
0.290000 0.000000 0.010000
0.290000 0.000000 0.020000
0.290000 0.000000 0.030000
0.290000 0.000000 0.040000
0.290000 0.000000 0.050000
0.290000 0.000000 0.060000
0.290000 0.000000 0.070000
0.290000 0.000000 0.080000
0.290000 0.000000 0.090000
0.280000 0.000000 0.010000
0.280000 0.000000 0.020000
0.280000 0.000000 0.030000
0.280000 0.000000 0.040000
0.280000 0.000000 0.050000
0.280000 0.000000 0.060000
0.280000 0.000000 0.070000
0.280000 0.000000 0.080000
0.280000 0.000000 0.090000
0.270000 0.000000 0.010000
0.270000 0.000000 0.020000
0.270000 0.000000 0.030000
0.270000 0.000000 0.040000
0.270000 0.000000 0.050000
0.270000 0.000000 0.060000
0.270000 0.000000 0.070000
0.270000 0.000000 0.080000
0.270000 0.000000 0.090000
0.260000 0.000000 0.010000
0.260000 0.000000 0.020000
0.260000 0.000000 0.030000
0.260000 0.000000 0.040000
0.260000 0.000000 0.050000
0.260000 0.000000 0.060000
0.260000 0.000000 0.070000
0.260000 0.000000 0.080000
0.260000 0.000000 0.090000
0.250000 0.000000 0.010000
0.250000 0.000000 0.020000
0.250000 0.000000 0.030000
0.250000 0.000000 0.040000
0.250000 0.000000 0.050000
0.250000 0.000000 0.060000
0.250000 0.000000 0.070000
0.250000 0.000000 0.080000
0.250000 0.000000 0.090000
0.240000 0.000000 0.010000
0.240000 0.000000 0.020000
0.240000 0.000000 0.030000
0.240000 0.000000 0.040000
0.240000 0.000000 0.050000
0.240000 0.000000 0.060000
0.240000 0.000000 0.070000
0.240000 0.000000 0.080000
0.240000 0.000000 0.090000
0.230000 0.000000 0.010000
0.230000 0.000000 0.020000
0.230000 0.000000 0.030000
0.230000 0.000000 0.040000
0.230000 0.000000 0.050000
0.230000 0.000000 0.060000
0.230000 0.000000 0.070000
0.230000 0.000000 0.080000
0.230000 0.000000 0.090000
0.220000 0.000000 0.010000
0.220000 0.000000 0.020000
0.220000 0.000000 0.030000
0.220000 0.000000 0.040000
0.220000 0.000000 0.050000
0.220000 0.000000 0.060000
0.220000 0.000000 0.070000
0.220000 0.000000 0.080000
0.220000 0.000000 0.090000
0.210000 0.000000 0.010000
0.210000 0.000000 0.020000
0.210000 0.000000 0.030000
0.210000 0.000000 0.040000
0.210000 0.000000 0.050000
0.210000 0.000000 0.060000
0.210000 0.000000 0.070000
0.210000 0.000000 0.080000
0.210000 0.000000 0.090000
0.200000 0.000000 0.010000
0.200000 0.000000 0.020000
0.200000 0.000000 0.030000
0.200000 0.000000 0.040000
0.200000 0.000000 0.050000
0.200000 0.000000 0.060000
0.200000 0.000000 0.070000
0.200000 0.000000 0.080000
0.200000 0.000000 0.090000
0.190000 0.000000 0.010000
0.190000 0.000000 0.020000
0.190000 0.000000 0.030000
0.190000 0.000000 0.040000
0.190000 0.000000 0.050000
0.190000 0.000000 0.060000
0.190000 0.000000 0.070000
0.190000 0.000000 0.080000
0.190000 0.000000 0.090000
0.180000 0.000000 0.010000
0.180000 0.000000 0.020000
0.180000 0.000000 0.030000
0.180000 0.000000 0.040000
0.180000 0.000000 0.050000
0.180000 0.000000 0.060000
0.180000 0.000000 0.070000
0.180000 0.000000 0.080000
0.180000 0.000000 0.090000
0.170000 0.000000 0.010000
0.170000 0.000000 0.020000
0.170000 0.000000 0.030000
0.170000 0.000000 0.040000
0.170000 0.000000 0.050000
0.170000 0.000000 0.060000
0.170000 0.000000 0.070000
0.170000 0.000000 0.080000
0.170000 0.000000 0.090000
0.160000 0.000000 0.010000
0.160000 0.000000 0.020000
0.160000 0.000000 0.030000
0.160000 0.000000 0.040000
0.160000 0.000000 0.050000
0.160000 0.000000 0.060000
0.160000 0.000000 0.070000
0.160000 0.000000 0.080000
0.160000 0.000000 0.090000
0.150000 0.000000 0.010000
0.150000 0.000000 0.020000
0.150000 0.000000 0.030000
0.150000 0.000000 0.040000
0.150000 0.000000 0.050000
0.150000 0.000000 0.060000
0.150000 0.000000 0.070000
0.150000 0.000000 0.080000
0.150000 0.000000 0.090000
0.140000 0.000000 0.010000
0.140000 0.000000 0.020000
0.140000 0.000000 0.030000
0.140000 0.000000 0.040000
0.140000 0.000000 0.050000
0.140000 0.000000 0.060000
0.140000 0.000000 0.070000
0.140000 0.000000 0.080000
0.140000 0.000000 0.090000
0.130000 0.000000 0.010000
0.130000 0.000000 0.020000
0.130000 0.000000 0.030000
0.130000 0.000000 0.040000
0.130000 0.000000 0.050000
0.130000 0.000000 0.060000
0.130000 0.000000 0.070000
0.130000 0.000000 0.080000
0.130000 0.000000 0.090000
0.120000 0.000000 0.010000
0.120000 0.000000 0.020000
0.120000 0.000000 0.030000
0.120000 0.000000 0.040000
0.120000 0.000000 0.050000
0.120000 0.000000 0.060000
0.120000 0.000000 0.070000
0.120000 0.000000 0.080000
0.120000 0.000000 0.090000
0.110000 0.000000 0.010000
0.110000 0.000000 0.020000
0.110000 0.000000 0.030000
0.110000 0.000000 0.040000
0.110000 0.000000 0.050000
0.110000 0.000000 0.060000
0.110000 0.000000 0.070000
0.110000 0.000000 0.080000
0.110000 0.000000 0.090000
0.100000 0.000000 0.010000
0.100000 0.000000 0.020000
0.100000 0.000000 0.030000
0.100000 0.000000 0.040000
0.100000 0.000000 0.050000
0.100000 0.000000 0.060000
0.100000 0.000000 0.070000
0.100000 0.000000 0.080000
0.100000 0.000000 0.090000
0.090000 0.000000 0.010000
0.090000 0.000000 0.020000
0.090000 0.000000 0.030000
0.090000 0.000000 0.040000
0.090000 0.000000 0.050000
0.090000 0.000000 0.060000
0.090000 0.000000 0.070000
0.090000 0.000000 0.080000
0.090000 0.000000 0.090000
0.080000 0.000000 0.010000
0.080000 0.000000 0.020000
0.080000 0.000000 0.030000
0.080000 0.000000 0.040000
0.080000 0.000000 0.050000
0.080000 0.000000 0.060000
0.080000 0.000000 0.070000
0.080000 0.000000 0.080000
0.080000 0.000000 0.090000
0.070000 0.000000 0.010000
[...]
POINT_DATA 1364
VECTORS displacement double
  -0.0000000000   -0.0000000000    0.0000000000
  -0.0000000000   -0.0000000000    0.0000000000
  -0.0000000000   -0.0000000000    0.0000000000
  -0.0000000000   -0.0000000000    0.0000000000
  -0.0000000000   -0.0000000000    0.0000000000
  -0.0000000000   -0.0000000001    0.0000000000
  -0.0000000000   -0.0000000001    0.0000000000
  -0.0000000000   -0.0000000001    0.0000000000
  -0.0000000000   -0.0000000001    0.0000000000
  -0.0000000000   -0.0000000002    0.0000000000
  -0.0000000000   -0.0000000002    0.0000000000
  -0.0000000001   -0.0000000002    0.0000000000
  -0.0000000001   -0.0000000003    0.0000000000
  -0.0000000001   -0.0000000003    0.0000000000
  -0.0000000001   -0.0000000003    0.0000000000
  -0.0000000001   -0.0000000004    0.0000000000
  -0.0000000001   -0.0000000004    0.0000000000
  -0.0000000001   -0.0000000005    0.0000000000
  -0.0000000001   -0.0000000005    0.0000000000
  -0.0000000001   -0.0000000006    0.0000000000
  -0.0000000001   -0.0000000006    0.0000000000
  -0.0000000001   -0.0000000007    0.0000000000
  -0.0000000001   -0.0000000007    0.0000000000
  -0.0000000001   -0.0000000007    0.0000000000
  -0.0000000001   -0.0000000008    0.0000000000
  -0.0000000001   -0.0000000008    0.0000000000
  -0.0000000001   -0.0000000009    0.0000000000
  -0.0000000001   -0.0000000009    0.0000000000
  -0.0000000001   -0.0000000010    0.0000000000
  -0.0000000001   -0.0000000010    0.0000000000
  -0.0000000000   -0.0000000010    0.0000000000
   0.0000000000   -0.0000000010    0.0000000000
   0.0000000001   -0.0000000010   -0.0000000000
   0.0000000001   -0.0000000010   -0.0000000000
   0.0000000001   -0.0000000009   -0.0000000000
   0.0000000001   -0.0000000009   -0.0000000000
   0.0000000001   -0.0000000008   -0.0000000000
   0.0000000001   -0.0000000008   -0.0000000000
   0.0000000001   -0.0000000007   -0.0000000000
   0.0000000001   -0.0000000007   -0.0000000000
   0.0000000001   -0.0000000007   -0.0000000000
   0.0000000001   -0.0000000006   -0.0000000000
   0.0000000001   -0.0000000006   -0.0000000000
   0.0000000001   -0.0000000005   -0.0000000000
   0.0000000001   -0.0000000005   -0.0000000000
   0.0000000001   -0.0000000004   -0.0000000000
   0.0000000001   -0.0000000004   -0.0000000000
   0.0000000001   -0.0000000003   -0.0000000000
   0.0000000001   -0.0000000003   -0.0000000000
   0.0000000001   -0.0000000003   -0.0000000000
   0.0000000001   -0.0000000002   -0.0000000000
   0.0000000000   -0.0000000002   -0.0000000000
   0.0000000000   -0.0000000002   -0.0000000000
   0.0000000000   -0.0000000001   -0.0000000000
   0.0000000000   -0.0000000001   -0.0000000000
   0.0000000000   -0.0000000001   -0.0000000000
   0.0000000000   -0.0000000001   -0.0000000000
   0.0000000000   -0.0000000000   -0.0000000000
   0.0000000000   -0.0000000000   -0.0000000000
   0.0000000000   -0.0000000000   -0.0000000000
   0.0000000000   -0.0000000000   -0.0000000000
   0.0000000000   -0.0000000000   -0.0000000000
   0.0000000000    0.0000000000    0.0000000000
   0.0000000000    0.0000000000    0.0000000000
   0.0000000000    0.0000000000    0.0000000000
  -0.0000000000    0.0000000000    0.0000000000
  -0.0000000000   -0.0000000000    0.0000000000
  -0.0000000000   -0.0000000000    0.0000000000
  -0.0000000000   -0.0000000000    0.0000000000
  -0.0000000000   -0.0000000000    0.0000000000
  -0.0000000000   -0.0000000001    0.0000000000
  -0.0000000000   -0.0000000001    0.0000000000
  -0.0000000000   -0.0000000001    0.0000000000
  -0.0000000000   -0.0000000001    0.0000000000
  -0.0000000000   -0.0000000002    0.0000000000
  -0.0000000000   -0.0000000002    0.0000000000
  -0.0000000000   -0.0000000002    0.0000000000
  -0.0000000000   -0.0000000003    0.0000000000
  -0.0000000000   -0.0000000003    0.0000000000
  -0.0000000000   -0.0000000003    0.0000000000
  -0.0000000000   -0.0000000004    0.0000000000
  -0.0000000000   -0.0000000004    0.0000000000
  -0.0000000000   -0.0000000005    0.0000000000
  -0.0000000000   -0.0000000005    0.0000000000
  -0.0000000000   -0.0000000006    0.0000000000
  -0.0000000000   -0.0000000006    0.0000000000
  -0.0000000000   -0.0000000007    0.0000000000
  -0.0000000000   -0.0000000007    0.0000000000
  -0.0000000000   -0.0000000007    0.0000000000
  -0.0000000000   -0.0000000008    0.0000000000
  -0.0000000000   -0.0000000008    0.0000000000
  -0.0000000000   -0.0000000009    0.0000000000
  -0.0000000000   -0.0000000009    0.0000000000
  -0.0000000000   -0.0000000010    0.0000000000
   0.0000000000    0.0000000000   -0.0000000000
   0.0000000000   -0.0000000000   -0.0000000000
   0.0000000000   -0.0000000000   -0.0000000000
   0.0000000000   -0.0000000000   -0.0000000000
   0.0000000000   -0.0000000000   -0.0000000000
   0.0000000000   -0.0000000001   -0.0000000000
   0.0000000000   -0.0000000001   -0.0000000000
   0.0000000000   -0.0000000001   -0.0000000000
   0.0000000000   -0.0000000001   -0.0000000000
   0.0000000000   -0.0000000002   -0.0000000000
   0.0000000000   -0.0000000002   -0.0000000000
   0.0000000000   -0.0000000002   -0.0000000000
   0.0000000000   -0.0000000003   -0.0000000000
   0.0000000000   -0.0000000003   -0.0000000000
   0.0000000000   -0.0000000003   -0.0000000000
   0.0000000000   -0.0000000004   -0.0000000000
   0.0000000000   -0.0000000004   -0.0000000000
   0.0000000000   -0.0000000005   -0.0000000000
   0.0000000000   -0.0000000005   -0.0000000000
   0.0000000000   -0.0000000006   -0.0000000000
   0.0000000000   -0.0000000006   -0.0000000000
   0.0000000000   -0.0000000007   -0.0000000000
   0.0000000000   -0.0000000007   -0.0000000000
   0.0000000000   -0.0000000007   -0.0000000000
   0.0000000000   -0.0000000008   -0.0000000000
   0.0000000000   -0.0000000008   -0.0000000000
   0.0000000000   -0.0000000009   -0.0000000000
   0.0000000000   -0.0000000009   -0.0000000000
   0.0000000000   -0.0000000010   -0.0000000000
  -0.0000000001   -0.0000000010   -0.0000000000
  -0.0000000001   -0.0000000010   -0.0000000000
  -0.0000000001   -0.0000000010   -0.0000000000
  -0.0000000001   -0.0000000010   -0.0000000000
  -0.0000000001   -0.0000000010   -0.0000000000
  -0.0000000001   -0.0000000010    0.0000000000
  -0.0000000001   -0.0000000010    0.0000000000
  -0.0000000001   -0.0000000010    0.0000000000
  -0.0000000001   -0.0000000010    0.0000000000
  -0.0000000001   -0.0000000010    0.0000000000
   0.0000000000    0.0000000000    0.0000000000
   0.0000000000    0.0000000000    0.0000000000
   0.0000000000    0.0000000000    0.0000000000
   0.0000000000    0.0000000000    0.0000000000
   0.0000000000    0.0000000000    0.0000000000
   0.0000000000    0.0000000000    0.0000000000
  -0.0000000000   -0.0000000000   -0.0000000000
  -0.0000000000   -0.0000000000   -0.0000000000
  -0.0000000000   -0.0000000000   -0.0000000000
  -0.0000000000   -0.0000000000   -0.0000000000
  -0.0000000000   -0.0000000000   -0.0000000000
  -0.0000000000   -0.0000000001   -0.0000000000
  -0.0000000000   -0.0000000001   -0.0000000000
  -0.0000000000   -0.0000000001   -0.0000000000
  -0.0000000000   -0.0000000001   -0.0000000000
  -0.0000000000   -0.0000000002   -0.0000000000
  -0.0000000000   -0.0000000002   -0.0000000000
  -0.0000000001   -0.0000000002   -0.0000000000
  -0.0000000001   -0.0000000003   -0.0000000000
  -0.0000000001   -0.0000000003   -0.0000000000
  -0.0000000001   -0.0000000003   -0.0000000000
  -0.0000000001   -0.0000000004   -0.0000000000
  -0.0000000001   -0.0000000004   -0.0000000000
  -0.0000000001   -0.0000000005   -0.0000000000
  -0.0000000001   -0.0000000005   -0.0000000000
  -0.0000000001   -0.0000000006   -0.0000000000
  -0.0000000001   -0.0000000006   -0.0000000000
  -0.0000000001   -0.0000000007   -0.0000000000
  -0.0000000001   -0.0000000007   -0.0000000000
  -0.0000000001   -0.0000000007   -0.0000000000
  -0.0000000001   -0.0000000008   -0.0000000000
  -0.0000000001   -0.0000000008   -0.0000000000
  -0.0000000001   -0.0000000009   -0.0000000000
  -0.0000000001   -0.0000000009   -0.0000000000
  -0.0000000001   -0.0000000010   -0.0000000000
  -0.0000000001   -0.0000000010   -0.0000000000
  -0.0000000001   -0.0000000010   -0.0000000000
  -0.0000000001   -0.0000000010   -0.0000000000
  -0.0000000001   -0.0000000010   -0.0000000000
  -0.0000000001   -0.0000000010    0.0000000000
  -0.0000000001   -0.0000000010    0.0000000000
  -0.0000000001   -0.0000000010    0.0000000000
  -0.0000000001   -0.0000000010    0.0000000000
  -0.0000000001   -0.0000000010    0.0000000000
  -0.0000000001   -0.0000000009   -0.0000000000
  -0.0000000001   -0.0000000009   -0.0000000000
  -0.0000000001   -0.0000000009   -0.0000000000
  -0.0000000001   -0.0000000009   -0.0000000000
  -0.0000000001   -0.0000000009    0.0000000000
  -0.0000000001   -0.0000000009    0.0000000000
  -0.0000000001   -0.0000000009    0.0000000000
  -0.0000000001   -0.0000000009    0.0000000000
  -0.0000000001   -0.0000000009    0.0000000000
  -0.0000000001   -0.0000000009   -0.0000000000
  -0.0000000001   -0.0000000009   -0.0000000000
  -0.0000000001   -0.0000000009   -0.0000000000
  -0.0000000001   -0.0000000009   -0.0000000000
  -0.0000000001   -0.0000000009    0.0000000000
  -0.0000000001   -0.0000000009    0.0000000000
  -0.0000000001   -0.0000000009    0.0000000000
  -0.0000000001   -0.0000000009    0.0000000000
  -0.0000000001   -0.0000000009    0.0000000000
  -0.0000000001   -0.0000000008   -0.0000000000
  -0.0000000001   -0.0000000008   -0.0000000000
  -0.0000000001   -0.0000000008   -0.0000000000
  -0.0000000001   -0.0000000008   -0.0000000000
  -0.0000000001   -0.0000000008    0.0000000000
  -0.0000000001   -0.0000000008    0.0000000000
  -0.0000000001   -0.0000000008    0.0000000000
  -0.0000000001   -0.0000000008    0.0000000000
  -0.0000000001   -0.0000000008    0.0000000000
  -0.0000000001   -0.0000000008   -0.0000000000
  -0.0000000001   -0.0000000008   -0.0000000000
  -0.0000000001   -0.0000000008   -0.0000000000
  -0.0000000001   -0.0000000008   -0.0000000000
  -0.0000000001   -0.0000000008    0.0000000000
  -0.0000000001   -0.0000000008    0.0000000000
  -0.0000000001   -0.0000000008    0.0000000000
  -0.0000000001   -0.0000000008    0.0000000000
  -0.0000000001   -0.0000000008    0.0000000000
  -0.0000000001   -0.0000000007   -0.0000000000
  -0.0000000001   -0.0000000007   -0.0000000000
  -0.0000000001   -0.0000000008   -0.0000000000
  -0.0000000001   -0.0000000008   -0.0000000000
  -0.0000000001   -0.0000000008    0.0000000000
  -0.0000000001   -0.0000000008    0.0000000000
  -0.0000000001   -0.0000000008    0.0000000000
  -0.0000000001   -0.0000000007    0.0000000000
  -0.0000000001   -0.0000000007    0.0000000000
  -0.0000000001   -0.0000000007   -0.0000000000
  -0.0000000001   -0.0000000007   -0.0000000000
  -0.0000000001   -0.0000000007   -0.0000000000
  -0.0000000001   -0.0000000007   -0.0000000000
  -0.0000000001   -0.0000000007    0.0000000000
  -0.0000000001   -0.0000000007    0.0000000000
  -0.0000000001   -0.0000000007    0.0000000000
  -0.0000000001   -0.0000000007    0.0000000000
  -0.0000000001   -0.0000000007    0.0000000000
  -0.0000000001   -0.0000000007   -0.0000000000
  -0.0000000001   -0.0000000007   -0.0000000000
  -0.0000000001   -0.0000000007   -0.0000000000
  -0.0000000001   -0.0000000007   -0.0000000000
  -0.0000000001   -0.0000000007    0.0000000000
  -0.0000000001   -0.0000000007    0.0000000000
  -0.0000000001   -0.0000000007    0.0000000000
  -0.0000000001   -0.0000000007    0.0000000000
  -0.0000000001   -0.0000000007    0.0000000000
  -0.0000000001   -0.0000000006   -0.0000000000
  -0.0000000001   -0.0000000006   -0.0000000000
  -0.0000000001   -0.0000000006   -0.0000000000
  -0.0000000001   -0.0000000006   -0.0000000000
  -0.0000000001   -0.0000000006    0.0000000000
  -0.0000000001   -0.0000000006    0.0000000000
  -0.0000000001   -0.0000000006    0.0000000000
  -0.0000000001   -0.0000000006    0.0000000000
  -0.0000000001   -0.0000000006    0.0000000000
  -0.0000000001   -0.0000000006   -0.0000000000
  -0.0000000001   -0.0000000006   -0.0000000000
  -0.0000000001   -0.0000000006   -0.0000000000
  -0.0000000001   -0.0000000006   -0.0000000000
  -0.0000000001   -0.0000000006    0.0000000000
  -0.0000000001   -0.0000000006    0.0000000000
  -0.0000000001   -0.0000000006    0.0000000000
  -0.0000000001   -0.0000000006    0.0000000000
  -0.0000000001   -0.0000000006    0.0000000000
  -0.0000000001   -0.0000000005   -0.0000000000
  -0.0000000001   -0.0000000005   -0.0000000000
  -0.0000000001   -0.0000000005   -0.0000000000
  -0.0000000001   -0.0000000005   -0.0000000000
  -0.0000000001   -0.0000000005    0.0000000000
  -0.0000000001   -0.0000000005    0.0000000000
  -0.0000000001   -0.0000000005    0.0000000000
  -0.0000000001   -0.0000000005    0.0000000000
  -0.0000000001   -0.0000000005    0.0000000000
  -0.0000000001   -0.0000000005   -0.0000000000
  -0.0000000001   -0.0000000005   -0.0000000000
  -0.0000000001   -0.0000000005   -0.0000000000
  -0.0000000001   -0.0000000005   -0.0000000000
  -0.0000000001   -0.0000000005    0.0000000000
  -0.0000000001   -0.0000000005    0.0000000000
  -0.0000000001   -0.0000000005    0.0000000000
  -0.0000000001   -0.0000000005    0.0000000000
  -0.0000000001   -0.0000000005    0.0000000000
  -0.0000000001   -0.0000000004   -0.0000000000
  -0.0000000001   -0.0000000004   -0.0000000000
  -0.0000000001   -0.0000000004   -0.0000000000
  -0.0000000001   -0.0000000004   -0.0000000000
  -0.0000000001   -0.0000000004    0.0000000000
  -0.0000000001   -0.0000000004    0.0000000000
  -0.0000000001   -0.0000000004    0.0000000000
  -0.0000000001   -0.0000000004    0.0000000000
  -0.0000000001   -0.0000000004    0.0000000000
  -0.0000000001   -0.0000000004   -0.0000000000
  -0.0000000001   -0.0000000004   -0.0000000000
  -0.0000000001   -0.0000000004   -0.0000000000
  -0.0000000001   -0.0000000004   -0.0000000000
  -0.0000000001   -0.0000000004    0.0000000000
  -0.0000000001   -0.0000000004    0.0000000000
  -0.0000000001   -0.0000000004    0.0000000000
  -0.0000000001   -0.0000000004    0.0000000000
  -0.0000000001   -0.0000000004    0.0000000000
  -0.0000000001   -0.0000000003   -0.0000000000
  -0.0000000001   -0.0000000003   -0.0000000000
  -0.0000000001   -0.0000000003   -0.0000000000
  -0.0000000001   -0.0000000003   -0.0000000000
  -0.0000000001   -0.0000000003    0.0000000000
  -0.0000000001   -0.0000000003    0.0000000000
  -0.0000000001   -0.0000000003    0.0000000000
  -0.0000000001   -0.0000000003    0.0000000000
  -0.0000000001   -0.0000000003    0.0000000000
  -0.0000000001   -0.0000000003   -0.0000000000
  -0.0000000001   -0.0000000003   -0.0000000000
  -0.0000000001   -0.0000000003   -0.0000000000
  -0.0000000001   -0.0000000003   -0.0000000000
  -0.0000000001   -0.0000000003    0.0000000000
  -0.0000000001   -0.0000000003    0.0000000000
  -0.0000000001   -0.0000000003    0.0000000000
  -0.0000000001   -0.0000000003    0.0000000000
  -0.0000000001   -0.0000000003    0.0000000000
  -0.0000000001   -0.0000000003   -0.0000000000
  -0.0000000001   -0.0000000003   -0.0000000000
  -0.0000000001   -0.0000000003   -0.0000000000
  -0.0000000001   -0.0000000003   -0.0000000000
  -0.0000000001   -0.0000000003    0.0000000000
  -0.0000000001   -0.0000000003    0.0000000000
  -0.0000000001   -0.0000000003    0.0000000000
  -0.0000000001   -0.0000000003    0.0000000000
  -0.0000000001   -0.0000000003    0.0000000000
  -0.0000000001   -0.0000000002   -0.0000000000
  -0.0000000001   -0.0000000002   -0.0000000000
  -0.0000000001   -0.0000000002   -0.0000000000
  -0.0000000001   -0.0000000002   -0.0000000000
  -0.0000000001   -0.0000000002    0.0000000000
  -0.0000000001   -0.0000000002    0.0000000000
  -0.0000000001   -0.0000000002    0.0000000000
  -0.0000000001   -0.0000000002    0.0000000000
  -0.0000000001   -0.0000000002    0.0000000000
  -0.0000000000   -0.0000000002   -0.0000000000
  -0.0000000000   -0.0000000002   -0.0000000000
  -0.0000000000   -0.0000000002   -0.0000000000
  -0.0000000000   -0.0000000002   -0.0000000000
  -0.0000000000   -0.0000000002    0.0000000000
  -0.0000000000   -0.0000000002    0.0000000000
  -0.0000000000   -0.0000000002    0.0000000000
  -0.0000000000   -0.0000000002    0.0000000000
  -0.0000000000   -0.0000000002    0.0000000000
  -0.0000000000   -0.0000000002   -0.0000000000
  -0.0000000000   -0.0000000002   -0.0000000000
  -0.0000000000   -0.0000000002   -0.0000000000
  -0.0000000000   -0.0000000002   -0.0000000000
  -0.0000000000   -0.0000000002    0.0000000000
  -0.0000000000   -0.0000000002    0.0000000000
  -0.0000000000   -0.0000000002    0.0000000000
  -0.0000000000   -0.0000000002    0.0000000000
  -0.0000000000   -0.0000000002    0.0000000000
  -0.0000000000   -0.0000000001   -0.0000000000
  -0.0000000000   -0.0000000001   -0.0000000000
  -0.0000000000   -0.0000000001   -0.0000000000
  -0.0000000000   -0.0000000001   -0.0000000000
  -0.0000000000   -0.0000000001    0.0000000000
  -0.0000000000   -0.0000000001    0.0000000000
  -0.0000000000   -0.0000000001    0.0000000000
  -0.0000000000   -0.0000000001    0.0000000000
  -0.0000000000   -0.0000000001    0.0000000000
  -0.0000000000   -0.0000000001   -0.0000000000
  -0.0000000000   -0.0000000001   -0.0000000000
  -0.0000000000   -0.0000000001   -0.0000000000
  -0.0000000000   -0.0000000001   -0.0000000000
  -0.0000000000   -0.0000000001    0.0000000000
  -0.0000000000   -0.0000000001    0.0000000000
  -0.0000000000   -0.0000000001    0.0000000000
  -0.0000000000   -0.0000000001    0.0000000000
  -0.0000000000   -0.0000000001    0.0000000000
  -0.0000000000   -0.0000000001   -0.0000000000
  -0.0000000000   -0.0000000001   -0.0000000000
  -0.0000000000   -0.0000000001   -0.0000000000
  -0.0000000000   -0.0000000001   -0.0000000000
  -0.0000000000   -0.0000000001    0.0000000000
  -0.0000000000   -0.0000000001    0.0000000000
  -0.0000000000   -0.0000000001    0.0000000000
  -0.0000000000   -0.0000000001    0.0000000000
  -0.0000000000   -0.0000000001    0.0000000000
  -0.0000000000   -0.0000000001   -0.0000000000
  -0.0000000000   -0.0000000001   -0.0000000000
  -0.0000000000   -0.0000000001   -0.0000000000
  -0.0000000000   -0.0000000001   -0.0000000000
  -0.0000000000   -0.0000000001    0.0000000000
  -0.0000000000   -0.0000000001    0.0000000000
  -0.0000000000   -0.0000000001    0.0000000000
  -0.0000000000   -0.0000000001    0.0000000000
  -0.0000000000   -0.0000000001    0.0000000000
  -0.0000000000   -0.0000000000   -0.0000000000
  -0.0000000000   -0.0000000000   -0.0000000000
  -0.0000000000   -0.0000000000   -0.0000000000
  -0.0000000000   -0.0000000000   -0.0000000000
  -0.0000000000   -0.0000000000    0.0000000000
  -0.0000000000   -0.0000000000    0.0000000000
  -0.0000000000   -0.0000000000    0.0000000000
  -0.0000000000   -0.0000000000    0.0000000000
  -0.0000000000   -0.0000000000    0.0000000000
  -0.0000000000   -0.0000000000   -0.0000000000
  -0.0000000000   -0.0000000000   -0.0000000000
  -0.0000000000   -0.0000000000   -0.0000000000
  -0.0000000000   -0.0000000000   -0.0000000000
  -0.0000000000   -0.0000000000    0.0000000000
  -0.0000000000   -0.0000000000    0.0000000000
  -0.0000000000   -0.0000000000    0.0000000000
  -0.0000000000   -0.0000000000    0.0000000000
  -0.0000000000   -0.0000000000    0.0000000000
  -0.0000000000   -0.0000000000   -0.0000000000
  -0.0000000000   -0.0000000000   -0.0000000000
  -0.0000000000   -0.0000000000   -0.0000000000
  -0.0000000000   -0.0000000000   -0.0000000000
  -0.0000000000   -0.0000000000    0.0000000000
  -0.0000000000   -0.0000000000    0.0000000000
  -0.0000000000   -0.0000000000    0.0000000000
  -0.0000000000   -0.0000000000    0.0000000000
  -0.0000000000   -0.0000000000    0.0000000000
  -0.0000000000   -0.0000000000   -0.0000000000
  -0.0000000000   -0.0000000000   -0.0000000000
  -0.0000000000   -0.0000000000   -0.0000000000
  -0.0000000000   -0.0000000000   -0.0000000000